##############################################################################
#                                                                            #
# Co-Nb            # Nb1.25Co1.75 ht                               #  250628 #
#                                                                            #
##############################################################################
#                                                                            #
#                           Pearson's Crystal Data                           #
#      Crystal Structure Database for Inorganic Compounds (on DVD)           #
#                              Release 2022/23                               #
#                  Editors: Pierre Villars and Karin Cenzual                 #
#                                                                            #
#   Copyright (c) ASM International & Material Phases Data System (MPDS),    #
# Switzerland & National Institute for Materials Science (NIMS), Japan, 2022 #
#                   All rights reserved. Version 2022.07                     #
#                                                                            #
#   This copy of Pearson's Crystal Data is licensed to:                      #
#   Indian Institute of Technology Kharagpur, Periodical Section, Central Library, Academic Site License         #
#                                                                            #
##############################################################################

data_250628
_audit_creation_date                     2024-01-07
_audit_creation_method
;
Pearson's Crystal Data browser
;
#_database_code_PCD                      250628
_database_code_PDF                       ?

# Entry summary

_chemical_formula_structural             'Nb~0.75~ Co~2.25~'
_chemical_formula_sum                    'Co2.25 Nb0.75'
_chemical_name_mineral                   ?
_chemical_compound_source                ?
_chemical_name_structure_type            MgNi~2~,hP24,194
_chemical_formula_weight                 202.3
_chemical_melting_point                  1520

# Bibliographic data

_publ_section_title
'The constitution of niobium-cobalt alloys'                                   
_journal_coden_ASTM                      JCOMAH
_journal_name_full                       'J. Less-Common Met.'
_journal_year                            1967
_journal_volume                          12
_journal_page_first                      366
_journal_page_last                       374
_journal_language                        English
loop_
 _publ_author_name
 _publ_author_address
'Pargeter J.K.'
;
Oxford University
Department of Metallurgy
Oxford
United Kingdom
;
# Standardized crystallographic data

_cell_length_a                           4.7407
_cell_length_b                           4.7407
_cell_length_c                           15.4525
_cell_angle_alpha                        90
_cell_angle_beta                         90
_cell_angle_gamma                        120
_cell_volume                             300.76
_cell_formula_units_Z                    8
_space_group_IT_number                   194
_space_group_name_H-M_alt                'P 63/m m c'
loop_
 _space_group_symop_id
 _space_group_symop_operation_xyz
 1 'x, y, z'
 2 '-x+y, -x, 1/2-z'
 3 '-x+y, -x, z'
 4 '-x+y, y, 1/2-z'
 5 '-x+y, y, z'
 6 '-x, -x+y, -z'
 7 '-x, -x+y, 1/2+z'
 8 '-x, -y, -z'
 9 '-x, -y, 1/2+z'
 10 '-y, -x, 1/2-z'
 11 '-y, -x, z'
 12 '-y, x-y, 1/2-z'
 13 '-y, x-y, z'
 14 'x, x-y, 1/2-z'
 15 'x, x-y, z'
 16 'x, y, 1/2-z'
 17 'x-y, -y, -z'
 18 'x-y, -y, 1/2+z'
 19 'x-y, x, -z'
 20 'x-y, x, 1/2+z'
 21 'y, -x+y, -z'
 22 'y, -x+y, 1/2+z'
 23 'y, x, -z'
 24 'y, x, 1/2+z'

# Atomic positions taken from type-defining entry

loop_
 _atom_type_symbol
 Co
 Nb
loop_
 _atom_site_label
 _atom_site_type_symbol
 _atom_site_symmetry_multiplicity
 _atom_site_Wyckoff_symbol
 _atom_site_fract_x
 _atom_site_fract_y
 _atom_site_fract_z
 _atom_site_occupancy
 Co1 Co 6 h 0.16429 0.32858 0.25 1
 Co2 Co 6 g 0.5 0 0 1
 Co3 Co 4 f 0.333333 0.666667 0.12514 1
 Nb1 Nb 4 f 0.333333 0.666667 0.65583 0.750
 Co4 Co 4 f 0.333333 0.666667 0.65583 0.250
 Nb2 Nb 4 e 0 0 0.09400 0.750
 Co5 Co 4 e 0 0 0.09400 0.250


_exptl_crystal_colour                    ?
_exptl_crystal_density_meas              ?
_exptl_crystal_density_diffrn            8.93
_cell_measurement_temperature            ?
_cell_measurement_radiation              ?
_cell_measurement_reflns_used            ?
_diffrn_ambient_temperature              ?
_diffrn_measurement_device               'Debye-Scherrer film'
_diffrn_measurement_device_type          ?
_diffrn_radiation_type                   ?
_diffrn_reflns_number                    ?
_exptl_absorpt_coefficient_mu            ?
_exptl_absorpt_correction_type           ?
_computing_structure_solution            ?
_refine_ls_number_parameters             ?
_refine_ls_number_reflns                 ?
_refine_ls_R_factor_gt                   ?
_refine_ls_wR_factor_gt                  ?

# Published diffraction lines

loop_
 _refln_index_h
 _refln_index_k
 _refln_index_l
 _refln_d_spacing
 _refln_intensity_meas
 1 0 5 2.463 2
 1 1 0 2.369 5
 1 0 6 2.181 6
 2 0 1 2.03 3
 1 1 4 2.02 8
 2 0 2 1.983 7
 1 0 7 1.945 2
 0 0 8 1.929 2
 2 0 3 1.905 2
 2 0 4 1.824 1
 2 1 5 1.387 2
 3 0 0 1.368 2
 2 1 6 1.328 6
 0 0 12 1.291 1
 3 0 4 1.289 7
 2 0 10 1.234 6
 3 0 6 1.208 1
 2 2 0 1.185 7
 2 0 11 1.159 5

# End of data set 250628

