##############################################################################
#                                                                            #
# Al-Tb            # TbAl3 rt                                      #  250717 #
#                                                                            #
##############################################################################
#                                                                            #
#                           Pearson's Crystal Data                           #
#      Crystal Structure Database for Inorganic Compounds (on DVD)           #
#                              Release 2022/23                               #
#                  Editors: Pierre Villars and Karin Cenzual                 #
#                                                                            #
#   Copyright (c) ASM International & Material Phases Data System (MPDS),    #
# Switzerland & National Institute for Materials Science (NIMS), Japan, 2022 #
#                   All rights reserved. Version 2022.07                     #
#                                                                            #
#   This copy of Pearson's Crystal Data is licensed to:                      #
#   Indian Institute of Technology Kharagpur, Periodical Section, Central Library, Academic Site License         #
#                                                                            #
##############################################################################

data_250717
_audit_creation_date                     2024-01-07
_audit_creation_method
;
Pearson's Crystal Data browser
;
#_database_code_PCD                      250717
_database_code_PDF                       04-001-0385

# Entry summary

_chemical_formula_structural             'Tb Al~3~'
_chemical_formula_sum                    'Al3 Tb'
_chemical_name_mineral                   ?
_chemical_compound_source                ?
_chemical_name_structure_type            BaPb~3~,hR36,166
_chemical_formula_weight                 239.9
_chemical_melting_point                  917

# Bibliographic data

_publ_section_title
;
Phase equilibria in aluminium-rich alloys of aluminium-gadolinium and aluminium-terbium
;
_journal_coden_ASTM                      JCOMAH
_journal_name_full                       'J. Less-Common Met.'
_journal_year                            1967
_journal_volume                          13
_journal_page_first                      431
_journal_page_last                       442
_journal_language                        English
loop_
 _publ_author_name
 _publ_author_address
'Runnalls O.J.C.'
;
Atomic Energy Canada Ltd. (AECL)
Chalk River Nuclear Laboratories
Chalk River
Canada
;
# Standardized crystallographic data

_cell_length_a                           6.176
_cell_length_b                           6.176
_cell_length_c                           21.165
_cell_angle_alpha                        90
_cell_angle_beta                         90
_cell_angle_gamma                        120
_cell_volume                             699.14
_cell_formula_units_Z                    9
_space_group_IT_number                   166
_space_group_name_H-M_alt                'R -3 m h'
loop_
 _space_group_symop_id
 _space_group_symop_operation_xyz
 1 'x, y, z'
 2 '-x+y, -x, z'
 3 '-x+y, y, z'
 4 '-x, -x+y, -z'
 5 '-x, -y, -z'
 6 '-y, -x, z'
 7 '-y, x-y, z'
 8 'x, x-y, z'
 9 'x-y, -y, -z'
 10 'x-y, x, -z'
 11 'y, -x+y, -z'
 12 'y, x, -z'
 13 '2/3+x, 1/3+y, 1/3+z'
 14 '2/3-x+y, 1/3-x, 1/3+z'
 15 '2/3-x+y, 1/3+y, 1/3+z'
 16 '2/3-x, 1/3-x+y, 1/3-z'
 17 '2/3-x, 1/3-y, 1/3-z'
 18 '2/3-y, 1/3-x, 1/3+z'
 19 '2/3-y, 1/3+x-y, 1/3+z'
 20 '2/3+x, 1/3+x-y, 1/3+z'
 21 '2/3+x-y, 1/3-y, 1/3-z'
 22 '2/3+x-y, 1/3+x, 1/3-z'
 23 '2/3+y, 1/3-x+y, 1/3-z'
 24 '2/3+y, 1/3+x, 1/3-z'
 25 '1/3+x, 2/3+y, 2/3+z'
 26 '1/3-x+y, 2/3-x, 2/3+z'
 27 '1/3-x+y, 2/3+y, 2/3+z'
 28 '1/3-x, 2/3-x+y, 2/3-z'
 29 '1/3-x, 2/3-y, 2/3-z'
 30 '1/3-y, 2/3-x, 2/3+z'
 31 '1/3-y, 2/3+x-y, 2/3+z'
 32 '1/3+x, 2/3+x-y, 2/3+z'
 33 '1/3+x-y, 2/3-y, 2/3-z'
 34 '1/3+x-y, 2/3+x, 2/3-z'
 35 '1/3+y, 2/3-x+y, 2/3-z'
 36 '1/3+y, 2/3+x, 2/3-z'
loop_
 _atom_type_symbol
 Al
 Tb
loop_
 _atom_site_label
 _atom_site_type_symbol
 _atom_site_symmetry_multiplicity
 _atom_site_Wyckoff_symbol
 _atom_site_fract_x
 _atom_site_fract_y
 _atom_site_fract_z
 _atom_site_occupancy
 Al1 Al 18 h 0.48517 0.51483 0.22403 1
 Al2 Al 9 e 0.5 0 0 1
 Tb1 Tb 6 c 0 0 0.2185 1
 Tb2 Tb 3 a 0 0 0 1


_exptl_crystal_colour                    ?
_exptl_crystal_density_meas              5.09
_exptl_crystal_density_diffrn            5.13
_cell_measurement_temperature            ?
_cell_measurement_radiation              'X-rays, Cu Ka'
_cell_measurement_reflns_used            ?
_diffrn_ambient_temperature              ?
_diffrn_measurement_device               film
_diffrn_measurement_device_type          ?
_diffrn_radiation_type                   'X-rays, Cu Ka'
_diffrn_reflns_number                    ?
_exptl_absorpt_coefficient_mu            ?
_exptl_absorpt_correction_type           ?
_computing_structure_solution            'starting values from the literature'
_refine_ls_number_parameters             ?
_refine_ls_number_reflns                 ?
_refine_ls_R_factor_gt                   ?
_refine_ls_wR_factor_gt                  ?
_pd_proc_ls_proof_R_factor               ?
_pd_proc_ls_proof_wR_factor              ?
_refine_ls_R_I_factor                    ?

# Published diffraction lines

loop_
 _refln_index_h
 _refln_index_k
 _refln_index_l
 _refln_d_spacing
 _refln_intensity_meas
 1 0 1 5.101 5
 0 1 2 4.687 3
 1 0 4 3.721 7
 0 1 5 3.273 7
 1 1 0 3.057 7
 0 2 1 2.63 5
 2 0 2 2.572 3
 0 2 4 2.369 7
 0 0 9 2.333 5
 2 0 5 2.246 7
 2 1 1 1.997 4.5
 1 0 10 1.957 3.5
 2 1 4 1.879 5
 1 1 9 1.858 5.5
 1 2 5 1.815 5
 3 0 0 1.776 5
 3 0 3 1.72 2
 2 1 7 1.673 2.5
 0 2 10 1.652 4.5
 1 2 8 1.599 2.5
 2 0 11 1.553 2.5
 2 2 0 1.538 5.5
 1 3 1 1.473 2
 2 1 10 1.455 4.5
 0 1 14 1.45 4.5
 1 3 4 1.421 4.5
 3 0 9 1.416 5
 3 1 5 1.395 3.5
 1 2 11 1.387 3.5
 4 0 1 1.328 2.5
 2 0 14 1.312 5
 4 0 4 1.293 3
 2 2 9 1.288 7
 0 4 5 1.273 3.5
 1 2 14 1.208 3.5
 3 2 4 1.193 3.5
 2 3 5 1.175 4.5
 4 1 0 1.165 3.5
 4 0 10 1.127 2.5
 2 1 16 1.105 2.5
 1 1 18 1.096 3.5
 0 5 1 1.066 2
 3 2 10 1.058 3.5
 4 1 9 1.044 5
 4 0 13 1.032 3
 3 3 0 1.028 4.5
 2 4 1 1.008 3
 0 4 14 1.002 3.5
 2 4 4 0.993 4.5
 3 3 6 0.988 3
 2 0 20 0.983 5
 3 2 13 0.98 3
 2 1 19 0.976 3
 2 4 7 0.958 2.5
 3 1 17 0.953 3
 4 2 8 0.943 3
 2 2 18 0.935 5.5
 2 4 10 0.912 3
 0 2 22 0.905 3
 6 0 0 0.891 5
 4 3 1 0.878 2
 3 4 2 0.875 2
 2 0 23 0.87 4.5
 1 5 11 0.859 5
 2 5 0 0.856 5
 1 2 23 0.838 5
 6 0 9 0.833 5.5
 4 1 18 0.828 5
 3 2 19 0.825 2.5
 4 3 10 0.812 2.5
 1 5 14 0.811 4.5
 1 6 4 0.806 3
 0 1 26 0.805 5.5
 6 1 5 0.801 5
 3 4 11 0.8 2
 3 0 24 0.79 2
 0 0 27 0.784 3.5
 3 1 23 0.782 5.5
 4 0 22 0.781 3
 3 3 18 0.774 5

# End of data set 250717

