##############################################################################
#                                                                            #
# Al-Gd            # GdAl3                                         #  250718 #
#                                                                            #
##############################################################################
#                                                                            #
#                           Pearson's Crystal Data                           #
#      Crystal Structure Database for Inorganic Compounds (on DVD)           #
#                              Release 2022/23                               #
#                  Editors: Pierre Villars and Karin Cenzual                 #
#                                                                            #
#   Copyright (c) ASM International & Material Phases Data System (MPDS),    #
# Switzerland & National Institute for Materials Science (NIMS), Japan, 2022 #
#                   All rights reserved. Version 2022.07                     #
#                                                                            #
#   This copy of Pearson's Crystal Data is licensed to:                      #
#   Indian Institute of Technology Kharagpur, Periodical Section, Central Library, Academic Site License         #
#                                                                            #
##############################################################################

data_250718
_audit_creation_date                     2024-01-07
_audit_creation_method
;
Pearson's Crystal Data browser
;
#_database_code_PCD                      250718
_database_code_PDF                       ?

# Entry summary

_chemical_formula_structural             'Gd Al~3~'
_chemical_formula_sum                    'Al3 Gd'
_chemical_name_mineral                   ?
_chemical_compound_source                ?
_chemical_name_structure_type            Mg~3~Cd,hP8,194
_chemical_formula_weight                 238.2
_chemical_melting_point                  916

# Bibliographic data

_publ_section_title
;
Phase equilibria in aluminium-rich alloys of aluminium-gadolinium and aluminium-terbium
;
_journal_coden_ASTM                      JCOMAH
_journal_name_full                       'J. Less-Common Met.'
_journal_year                            1967
_journal_volume                          13
_journal_page_first                      431
_journal_page_last                       442
_journal_language                        English
loop_
 _publ_author_name
 _publ_author_address
'Runnalls O.J.C.'
;
Atomic Energy Canada Ltd. (AECL)
Chalk River Nuclear Laboratories
Chalk River
Canada
;
# Standardized crystallographic data

_cell_length_a                           6.331
_cell_length_b                           6.331
_cell_length_c                           4.6
_cell_angle_alpha                        90
_cell_angle_beta                         90
_cell_angle_gamma                        120
_cell_volume                             159.67
_cell_formula_units_Z                    2
_space_group_IT_number                   194
_space_group_name_H-M_alt                'P 63/m m c'
loop_
 _space_group_symop_id
 _space_group_symop_operation_xyz
 1 'x, y, z'
 2 '-x+y, -x, 1/2-z'
 3 '-x+y, -x, z'
 4 '-x+y, y, 1/2-z'
 5 '-x+y, y, z'
 6 '-x, -x+y, -z'
 7 '-x, -x+y, 1/2+z'
 8 '-x, -y, -z'
 9 '-x, -y, 1/2+z'
 10 '-y, -x, 1/2-z'
 11 '-y, -x, z'
 12 '-y, x-y, 1/2-z'
 13 '-y, x-y, z'
 14 'x, x-y, 1/2-z'
 15 'x, x-y, z'
 16 'x, y, 1/2-z'
 17 'x-y, -y, -z'
 18 'x-y, -y, 1/2+z'
 19 'x-y, x, -z'
 20 'x-y, x, 1/2+z'
 21 'y, -x+y, -z'
 22 'y, -x+y, 1/2+z'
 23 'y, x, -z'
 24 'y, x, 1/2+z'

# Atomic positions taken from type-defining entry

loop_
 _atom_type_symbol
 Al
 Gd
loop_
 _atom_site_label
 _atom_site_type_symbol
 _atom_site_symmetry_multiplicity
 _atom_site_Wyckoff_symbol
 _atom_site_fract_x
 _atom_site_fract_y
 _atom_site_fract_z
 _atom_site_occupancy
 Al1 Al 6 h 0.16667 0.33333 0.25 1
 Gd1 Gd 2 d 0.333333 0.666667 0.75 1


_exptl_crystal_colour                    ?
_exptl_crystal_density_meas              4.87
_exptl_crystal_density_diffrn            4.95
_cell_measurement_temperature            ?
_cell_measurement_radiation              'X-rays, Cu Ka'
_cell_measurement_reflns_used            ?
_diffrn_ambient_temperature              ?
_diffrn_measurement_device               diffractometer
_diffrn_measurement_device_type          ?
_diffrn_radiation_type                   ?
_diffrn_reflns_number                    ?
_exptl_absorpt_coefficient_mu            ?
_exptl_absorpt_correction_type           ?
_computing_structure_solution            ?
_refine_ls_number_parameters             ?
_refine_ls_number_reflns                 ?
_refine_ls_R_factor_gt                   ?
_refine_ls_wR_factor_gt                  ?

# Published diffraction lines

loop_
 _refln_index_h
 _refln_index_k
 _refln_index_l
 _refln_d_spacing
 _refln_intensity_meas
 1 0 0 5.454 2.5
 1 0 1 3.482 7
 1 1 0 3.14 5
 2 0 0 2.719 5
 2 0 1 2.339 7.5
 0 0 2 2.282 5.5
 1 0 2 2.106 2.5
 2 1 0 2.063 3.5
 2 1 1 1.877 5
 1 1 2 1.85 5
 3 0 0 1.817 3.5
 2 0 2 1.754 4.5
 3 0 1 1.687 2
 2 2 0 1.575 5
 2 1 2 1.534 3.5
 3 1 0 1.513 2.5
 1 0 3 1.47 5
 3 1 1 1.44 5.5
 3 0 2 1.426 3
 4 0 0 1.367 2.5
 2 0 3 1.334 6.5
 4 0 1 1.31 5
 2 2 2 1.302 5.5
 3 1 2 1.266 2.5
 3 2 0 1.254 2
 2 1 3 1.229 3
 3 2 1 1.21 3.5
 4 1 0 1.193 3
 4 0 2 1.175 2.5
 4 1 1 1.157 2
 0 0 4 1.148 3
 5 0 0 1.094 2
 1 1 4 1.079 5
 5 0 1 1.066 2
 4 1 2 1.06 5
 3 3 0 1.055 2
 4 2 0 1.035 2
 4 0 3 1.022 3
 4 2 1 1.011 4.5
 2 1 4 1.005 3
 5 0 2 0.989 2
 3 0 4 0.973 4.5
 5 1 1 0.962 3.5
 3 3 2 0.958 3.5
 4 1 3 0.942 2
 2 2 4 0.929 5
 3 1 4 0.916 2
 6 0 0 0.913 2.5
 1 0 5 0.906 3
 4 3 0 0.9 2
 5 0 3 0.891 2
 4 3 1 0.884 3
 4 0 4 0.88 2
 5 2 0 0.877 3
 2 0 5 0.872 5
 5 2 1 0.862 2
 4 2 3 0.858 5
 6 0 2 0.849 4.5
 6 1 0 0.836 2
 5 1 3 0.829 5.5
 6 1 1 0.822 5
 5 0 4 0.793 2.5
 4 4 0 0.791 2.5
 3 1 5 0.787 5.5
 5 3 0 0.783 2
 3 3 4 0.777 5
 5 3 1 0.772 5.5

# End of data set 250718

