##############################################################################
#                                                                            #
# Au-Dy            # Au3Dy                                         #  250752 #
#                                                                            #
##############################################################################
#                                                                            #
#                           Pearson's Crystal Data                           #
#      Crystal Structure Database for Inorganic Compounds (on DVD)           #
#                              Release 2022/23                               #
#                  Editors: Pierre Villars and Karin Cenzual                 #
#                                                                            #
#   Copyright (c) ASM International & Material Phases Data System (MPDS),    #
# Switzerland & National Institute for Materials Science (NIMS), Japan, 2022 #
#                   All rights reserved. Version 2022.07                     #
#                                                                            #
#   This copy of Pearson's Crystal Data is licensed to:                      #
#   Indian Institute of Technology Kharagpur, Periodical Section, Central Library, Academic Site License         #
#                                                                            #
##############################################################################

data_250752
_audit_creation_date                     2024-01-07
_audit_creation_method
;
Pearson's Crystal Data browser
;
#_database_code_PCD                      250752
_database_code_PDF                       ?

# Entry summary

_chemical_formula_structural             'Au~3~ Dy'
_chemical_formula_sum                    'Au3 Dy'
_chemical_name_mineral                   ?
_chemical_compound_source                ?
_chemical_name_structure_type            Cu~3~Ti,oP8,59
_chemical_formula_weight                 753.4

# Bibliographic data

_publ_section_title
'Crystal chemistry of Au-rich binary alloy phases with the heavy rare earths' 
_journal_coden_ASTM                      JCOMAH
_journal_name_full                       'J. Less-Common Met.'
_journal_year                            1968
_journal_volume                          14
_journal_page_first                      279
_journal_page_last                       290
_journal_language                        English
loop_
 _publ_author_name
 _publ_author_address
'Sadagopan V.'
;
Massachusetts Institute of Technology (MIT)
Department of Metallurgy
Cambridge
U.S.A. Massachusetts
;
# Standardized crystallographic data

_cell_length_a                           5.086
_cell_length_b                           6.094
_cell_length_c                           4.976
_cell_angle_alpha                        90
_cell_angle_beta                         90
_cell_angle_gamma                        90
_cell_volume                             154.23
_cell_formula_units_Z                    2
_space_group_IT_number                   59
_space_group_name_H-M_alt                'P m m n (origin choice 2)'
loop_
 _space_group_symop_id
 _space_group_symop_operation_xyz
 1 'x, y, z'
 2 '1/2-x, 1/2-y, z'
 3 '1/2-x, y, z'
 4 '-x, -y, -z'
 5 '-x, 1/2+y, -z'
 6 '1/2+x, -y, -z'
 7 '1/2+x, 1/2+y, -z'
 8 'x, 1/2-y, z'

# Atomic positions taken from type-defining entry

loop_
 _atom_type_symbol
 Au
 Dy
loop_
 _atom_site_label
 _atom_site_type_symbol
 _atom_site_symmetry_multiplicity
 _atom_site_Wyckoff_symbol
 _atom_site_fract_x
 _atom_site_fract_y
 _atom_site_fract_z
 _atom_site_occupancy
 Au1 Au 4 e 0.25 0.000 0.655 1
 Dy1 Dy 2 b 0.25 0.75 0.155 1
 Au2 Au 2 a 0.25 0.25 0.155 1


_exptl_crystal_colour                    ?
_exptl_crystal_density_meas              ?
_exptl_crystal_density_diffrn            16.22
_cell_measurement_temperature            ?
_cell_measurement_radiation              'X-rays, Cu Ka'
_cell_measurement_reflns_used            ?
_diffrn_ambient_temperature              ?
_diffrn_measurement_device               diffractometer
_diffrn_measurement_device_type          ?
_diffrn_radiation_type                   ?
_diffrn_reflns_number                    ?
_exptl_absorpt_coefficient_mu            ?
_exptl_absorpt_correction_type           ?
_computing_structure_solution            ?
_refine_ls_number_parameters             ?
_refine_ls_number_reflns                 ?
_refine_ls_R_factor_gt                   ?
_refine_ls_wR_factor_gt                  ?

# End of data set 250752

